   * xtb version 6.5.1 (579679a) compiled by 'ehlert@majestix' on 2022-07-11
          program call               : /ihome/jkeith/amm503/codes/xtb-6.5.1/bin/xtb ./50h2o.pm.xyz --opt normal --gfn 2 --charge 0 --cycles 500

   ID    Z sym.   atoms
    1    8 O      1, 4, 7, 10, 13, 16, 19, 22, 25, 28, 31, 34, 37, 40, 43,
                  46, 49, 52, 55, 58, 61, 64, 67, 70, 73, 76, 79, 82, 85, 88,
                  91, 94, 97, 100, 103, 106, 109, 112, 115, 118, 121, 124,
                  127, 130, 133, 136, 139, 142, 145, 148
    2    1 H      2, 3, 5, 6, 8, 9, 11, 12, 14, 15, 17, 18, 20, 21, 23, 24,
                  26, 27, 29, 30, 32, 33, 35, 36, 38, 39, 41, 42, 44, 45, 47,
                  48, 50, 51, 53, 54, 56, 57, 59, 60, 62, 63, 65, 66, 68, 69,
                  71, 72, 74, 75, 77, 78, 80, 81, 83, 84, 86, 87, 89, 90, 92,
                  93, 95, 96, 98, 99, 101, 102, 104, 105, 107, 108, 110, 111,
                  113, 114, 116, 117, 119, 120, 122, 123, 125, 126, 128, 129,
                  131, 132, 134, 135, 137, 138, 140, 141, 143, 144, 146, 147,
                  149, 150

          :  Hamiltonian                  GFN2-xTB          :
 * total energy  :  -253.5859349 Eh     change       -0.1370779E-09 Eh
 * total energy  :  -253.6792539 Eh     change       -0.9331902E-01 Eh
 * total energy  :  -253.7496008 Eh     change       -0.7034682E-01 Eh
 * total energy  :  -253.8078284 Eh     change       -0.5822765E-01 Eh
 * total energy  :  -253.8556767 Eh     change       -0.4784826E-01 Eh
 * total energy  :  -253.8955865 Eh     change       -0.3990980E-01 Eh
 * total energy  :  -253.9243572 Eh     change       -0.2877071E-01 Eh
 * total energy  :  -253.9439516 Eh     change       -0.1959437E-01 Eh
 * total energy  :  -253.9654781 Eh     change       -0.2152651E-01 Eh
 * total energy  :  -253.9383535 Eh     change        0.2712458E-01 Eh
 * total energy  :  -254.4593545 Eh     change       -0.1603928E-04 Eh
 * total energy  :  -254.4593655 Eh     change       -0.1101449E-04 Eh
 * total energy  :  -254.4593762 Eh     change       -0.1070509E-04 Eh
 * total energy  :  -254.4593876 Eh     change       -0.1142403E-04 Eh
 * total energy  :  -254.4593868 Eh     change        0.7931922E-06 Eh
 * total energy  :  -254.4593957 Eh     change       -0.8856502E-05 Eh
 * total energy  :  -254.4594019 Eh     change       -0.6249796E-05 Eh
 * total energy  :  -254.4594083 Eh     change       -0.6372023E-05 Eh
 * total energy  :  -254.4594129 Eh     change       -0.4633988E-05 Eh
   *** GEOMETRY OPTIMIZATION CONVERGED AFTER 443 ITERATIONS ***

 final structure:
================
150
 xtb: 6.5.1 (579679a)
O           -1.01082964860812       -3.54982414908015       -1.66365617514388
H           -0.39059747238923       -4.19204767002156       -1.29086063114948
H           -0.57970905614751       -2.67588055178029       -1.60608441768383
O            4.45406325670182       -0.52593962287223        2.65297041458700
H            3.61162887940204       -0.58549981773389        3.13408482524395
H            4.47306830837436       -1.30906081686689        2.07293339149393
O            0.70684182970629       -3.09169154554311        1.07355653715449
H            1.29362858580976       -3.26889892887521        1.85106799932158
H            0.87335889781775       -3.79300845643715        0.43443597076560
O            0.30498545965815       -1.15643123069922       -1.69240689254750
H            0.29324331730389       -0.70784745830110       -2.57010988770117
H            0.86624874011765       -0.62849376594827       -1.09963831094604
O            3.92451034626367        1.45190641883428        0.99505232663181
H            4.28678835824335        0.77423619986927        1.61896711442591
H            3.45388933065755        2.09370196582706        1.54869007569521
O            1.73320970014855        1.97736165419512        4.69964298769996
H            0.75655195725500        1.95314380320009        4.94290390290638
H            2.20940595512127        2.16783364200759        5.50728727261183
O            1.58368895734214        1.57502596024220       -2.20096674388283
H            1.75139201365366        2.30703785902158       -1.58357996422713
H            2.38726275299933        1.02551238389340       -2.26130999485982
O           -2.06281357136677        1.80452325198403        2.87993051714867
H           -1.87158844729324        0.88811318664049        2.62052551247772
H           -1.86744521158138        2.35600047176582        2.09524345931917
O           -2.97581224842848       -2.55352206981789        0.04913447609990
H           -2.51537958687456       -2.91555082753720       -0.72460831885064
H           -2.64495690822268       -1.63119531900643        0.13549653033532
O           -0.27131761592290       -3.74294091256899        4.66316642284931
H           -0.92767391819547       -3.81266498872737        3.95749775501964
H           -0.40217186689437       -2.86875164930950        5.07054750523592
O           -3.98281452999535        1.43300753245963       -2.10443364397391
H           -4.41672939370268        1.32762930865854       -1.24610443397604
H           -3.38020428423090        2.18764618673986       -2.00676434594918
O            0.88249268188100        1.77729129102500        0.47261845196966
H            0.72339546304990        0.88621047105405        0.84052517323015
H            1.43552837386382        2.25037725338674        1.11448119301464
O            1.20379790277089       -5.09732273662731       -0.82744854004471
H            1.44882421142541       -5.60187358382462       -1.64860732510057
H            1.89419291033188       -5.32375647477628       -0.17374102937760
O           -5.53650582733312       -1.74901335833933       -0.08511108896093
H           -6.03736328106478       -2.34253350205380        0.47367501384158
H           -4.63148428573733       -2.12497917847219       -0.15238210008148
O           -1.70353826753908       -3.37309810554412        2.23139766314269
H           -2.31034409762189       -3.30205084969569        1.46723561617936
H           -0.81009201154788       -3.31218368689714        1.82810726922027
O            2.24150689495248       -2.93907488748150       -2.06042738696906
H            1.57101276144545       -2.24065709430886       -1.90252641855965
H            1.95101521578009       -3.72022328948469       -1.55003005545118
O            0.23310395570125       -0.53777170511528        1.58256903678579
H            0.48519680507394       -1.39832426197108        1.20232403303174
H           -0.72184225661747       -0.45008760185065        1.41536881075852
O            2.02315821312465       -3.46066903972988        3.32260693444731
H            1.25082051266323       -3.69661652839213        3.88753582024845
H            2.27652326052532       -2.57310927628623        3.59848324187275
O            3.16443844987347       -4.96445268707124        1.02464833842023
H            3.46868543348523       -4.02663853750532        0.96830575317091
H            2.96422705733401       -5.09389051569642        1.95479980491080
O            2.29900679668565        3.18664372285733        2.35454178050736
H            2.07823687362426        2.83362945571772        3.23622693587158
H            1.75361727139332        3.97297882755164        2.20857145135441
O            1.68226009275004        2.82569656616945       -4.50953005805168
H            1.56654794589855        2.22655637132899       -5.24828859879150
H            1.56324210703171        2.28069328479019       -3.69132848465493
O            0.07002677572082       -0.18873676274776       -4.17040243664929
H           -0.68665408694243       -0.72018948198637       -4.51116986177276
H           -0.25308600138001        0.72706469304555       -4.18316741971055
O            2.55566838157113       -0.48156201710100       -0.31935555880099
H            2.90542310262550        0.28635195254572        0.17284772414030
H            3.05347684884742       -0.48382524096159       -1.15559571617428
O           -4.75421734197124        0.76102217172746        0.49572670588621
H           -5.15613264631125       -0.10062646414333        0.25971986660978
H           -4.88695459271576        0.86690061520141        1.45240332693693
O            4.34373205497312        2.45870748928985       -3.50695863861739
H            4.39061122334888        2.89562904399207       -2.64299405144300
H            3.54236495830145        2.78500921445357       -3.94491800149302
O           -0.45875260399931       -1.00658081905940        5.15912534112617
H           -1.11549758002703       -0.97590838538210        4.43095451082387
H            0.41583960139312       -0.93435117659658        4.73483246769822
O           -0.92980195484804       -3.97210401635607       -4.29853599738024
H           -1.02082351191038       -3.83768909215335       -3.32456775419250
H           -1.17581309793472       -4.88020100660238       -4.47462481799819
O            4.87242422743320       -2.54236650018392       -1.77716624408434
H            3.92219709268488       -2.68568588113221       -1.97660829756366
H            5.07639112534840       -1.69799074351278       -2.19090620646393
O           -4.57594145761507        0.92011560974671        3.23187660846733
H           -3.69649001669938        1.35734433694410        3.17107249369560
H           -5.08170028271013        1.41044791169086        3.87891110553841
O            1.86534462660708       -0.55238464903935        3.71247881774167
H            1.29982065024482       -0.50809894263797        2.91258876708220
H            1.91520380551554        0.36117627421016        4.05375364117481
O            4.42661350677520       -5.40365690307722       -1.55513023786105
H            4.82033253369749       -4.53813110253746       -1.71898418934300
H            4.17929908922545       -5.41822219772826       -0.62231753258104
O            4.51884810133920        3.31313928752512       -0.83850273943875
H            5.37038936900752        3.68486277361125       -0.61027799817989
H            4.37847368263149        2.54930324714326       -0.23762514991343
O            3.98608879148875       -2.44272847680117        0.76199894513959
H            4.56766791049567       -2.52061412249297       -0.01846958713245
H            3.27770453942617       -1.83098905105104        0.45612311645453
O            2.55802716605105       -1.04130262990522       -4.87223383557558
H            2.47259788149580       -2.00181296272681       -4.98204264030858
H            1.65383550054291       -0.71478699771827       -4.71729617288400
O            3.75810080322145       -0.04044967175804       -2.73081604998700
H            4.17320923690073        0.78064269706937       -3.06666217450734
H            3.37834733551638       -0.47671150979691       -3.53197494045315
O           -2.17402566535475        0.02054295844077        0.49627796971221
H           -1.75954848590868        0.51353889156995       -0.23737693231336
H           -3.09445131952526        0.35588341003680        0.54143031834051
O           -1.36620683302863        2.10629075890109       -4.19796469855230
H           -2.21862184533289        1.72876927178826       -4.53443388542890
H           -1.34523130446664        3.03360945874177       -4.43370407210037
O            0.51211171803497        5.00494815368405        1.31567260064781
H            0.14881034746699        5.88810362008501        1.35879762387991
H           -0.24413436547166        4.38998066890211        1.12969713052559
O           -2.21504552788565       -0.95087052930849        3.14375373325923
H           -2.07456056362670       -1.87037446630662        2.80711358529950
H           -3.16017781269057       -0.82202832791015        3.25413640134639
O           -3.60828624352732        0.92278569699959       -4.87328521543679
H           -4.02099313753509        0.95894724888926       -3.99848453291429
H           -3.29976706103854        0.01504178224847       -5.00716330112031
O           -2.15713979762315       -1.52645409717866       -4.74953329500217
H           -1.84402320872145       -2.43722327653631       -4.84235942753002
H           -2.41584849775958       -1.43555559677326       -3.79818884415619
O           -2.61942754125431       -0.94700728813510       -2.23295121603894
H           -1.74721647594816       -0.62439789032080       -1.96122713866392
H           -3.19997202809703       -0.16555049324037       -2.18984330879195
O            1.83823135814152       -3.73796981264473       -4.57061877155656
H            2.03078536054614       -3.41558523533623       -3.66347286138464
H            0.87004842325885       -3.75778655273058       -4.64130679427900
O           -0.01877113258786        4.42277949453676       -2.93963889928175
H            0.47041622954376        3.98656807832792       -3.65499396414892
H            0.61231340477562        4.41186566366900       -2.20090605588582
O           -1.30470738995600        3.19060318354605        0.68775928563825
H           -0.54454478664309        2.58069804726667        0.48551957879771
H           -1.76005781121958        3.31334711249037       -0.16388366446052
O            2.20472596756832       -6.06409781645793       -3.04481895789425
H            3.10592340895821       -5.98927849439376       -2.68081226146329
H            2.15494997442762       -5.40327936422685       -3.75792104605167
O           -2.36099431073743        3.78022508531900       -1.79878606416485
H           -1.49640159955972        3.94363389478418       -2.24748343349358
H           -2.87695037809572        4.57800419506192       -1.91157340435015
O           -1.05366186004828        1.30240410540610       -1.58616022838487
H           -0.09124659107230        1.39960745638178       -1.53554346332545
H           -1.29382870791452        1.65310714043222       -2.45817841476763
O            1.86719719931911        4.07100482671319       -0.96710638971101
H            1.51714889933397        4.38887217866077       -0.12117889199660
H            2.82969491474420        4.01331033836817       -0.88107182197075
O           -0.76323194050435        1.71436973250094        5.28832807034669
H           -1.27767428592997        1.84608527589169        4.46971927869507
H           -0.77052149444757        0.75092561192277        5.45681802010986

          :  Hamiltonian                  GFN2-xTB          :
         :: total energy            -254.459412930153 Eh    ::
         :: gradient norm              0.000811721712 Eh/a0 ::
         :: HOMO-LUMO gap              9.041931762301 eV    ::
         :: SCC energy              -255.974636562861 Eh    ::
         :: -> dispersion             -0.123432953445 Eh    ::
         :: repulsion energy           1.500425164069 Eh    ::

    * Orbital Energies and Occupations

         #    Occupation            Energy/Eh            Energy/eV
      -------------------------------------------------------------
         1        2.0000           -0.6914508             -18.8153
       ...           ...                  ...                  ...
       188        2.0000           -0.4313553             -11.7378
       189        2.0000           -0.4296410             -11.6911
       190        2.0000           -0.4280604             -11.6481
       191        2.0000           -0.4279221             -11.6444
       192        2.0000           -0.4260473             -11.5933
       193        2.0000           -0.4258737             -11.5886
       194        2.0000           -0.4252961             -11.5729
       195        2.0000           -0.4248678             -11.5612
       196        2.0000           -0.4237321             -11.5303
       197        2.0000           -0.4229103             -11.5080
       198        2.0000           -0.4207943             -11.4504
       199        2.0000           -0.4182400             -11.3809
       200        2.0000           -0.4173125             -11.3557 (HOMO)
       201                         -0.0850276              -2.3137 (LUMO)
       202                         -0.0431751              -1.1749
       203                         -0.0383271              -1.0429
       204                         -0.0318085              -0.8656
       205                          0.0066841               0.1819
       206                          0.0094943               0.2584
       207                          0.0127805               0.3478
       208                          0.0212649               0.5786
       209                          0.0234954               0.6393
       210                          0.0295387               0.8038
       211                          0.0486729               1.3245
       ...                                ...                  ...
       300                          0.3848364              10.4719
      -------------------------------------------------------------
                  HL-Gap            0.3322849 Eh            9.0419 eV

     #   Z          covCN         q      C6AA      α(0)
     1   8 O        1.608    -0.647    26.334     6.926
     2   1 H        0.805     0.326     0.647     1.263
     3   1 H        0.803     0.348     0.592     1.209
     4   8 O        1.608    -0.642    26.212     6.910
     5   1 H        0.804     0.315     0.679     1.294
     6   1 H        0.804     0.324     0.654     1.270
     7   8 O        1.606    -0.669    26.909     7.001
     8   1 H        0.802     0.342     0.608     1.225
     9   1 H        0.805     0.327     0.646     1.262
    10   8 O        1.606    -0.677    27.120     7.028
    11   1 H        0.802     0.347     0.595     1.211
    12   1 H        0.804     0.345     0.601     1.218
    13   8 O        1.606    -0.666    26.836     6.992
    14   1 H        0.802     0.337     0.619     1.236
    15   1 H        0.804     0.325     0.651     1.267
    16   8 O        1.603    -0.641    26.195     6.907
    17   1 H        0.801     0.348     0.594     1.211
    18   1 H        0.806     0.285     0.767     1.376
    19   8 O        1.608    -0.656    26.573     6.957
    20   1 H        0.804     0.338     0.617     1.234
    21   1 H        0.804     0.336     0.621     1.238
    22   8 O        1.607    -0.659    26.643     6.966
    23   1 H        0.804     0.339     0.614     1.231
    24   1 H        0.803     0.337     0.619     1.236
    25   8 O        1.607    -0.655    26.551     6.954
    26   1 H        0.804     0.329     0.640     1.256
    27   1 H        0.802     0.344     0.602     1.219
    28   8 O        1.609    -0.628    25.866     6.864
    29   1 H        0.805     0.317     0.672     1.287
    30   1 H        0.804     0.318     0.668     1.284
    31   8 O        1.609    -0.641    26.186     6.906
    32   1 H        0.805     0.324     0.654     1.271
    33   1 H        0.804     0.328     0.642     1.259
    34   8 O        1.608    -0.666    26.832     6.991
    35   1 H        0.804     0.335     0.625     1.242
    36   1 H        0.804     0.321     0.660     1.276
    37   8 O        1.604    -0.683    27.259     7.046
    38   1 H        0.801     0.340     0.612     1.229
    39   1 H        0.803     0.327     0.645     1.261
    40   8 O        1.608    -0.620    25.661     6.837
    41   1 H        0.806     0.277     0.794     1.399
    42   1 H        0.803     0.336     0.621     1.238
    43   8 O        1.606    -0.670    26.939     7.005
    44   1 H        0.803     0.324     0.654     1.270
    45   1 H        0.803     0.332     0.632     1.249
    46   8 O        1.606    -0.682    27.229     7.043
    47   1 H        0.803     0.340     0.612     1.229
    48   1 H        0.803     0.331     0.634     1.251
    49   8 O        1.608    -0.669    26.900     7.000
    50   1 H        0.804     0.346     0.599     1.215
    51   1 H        0.804     0.345     0.599     1.216
    52   8 O        1.607    -0.637    26.086     6.893
    53   1 H        0.802     0.332     0.634     1.251
    54   1 H        0.805     0.312     0.686     1.301
    55   8 O        1.607    -0.648    26.357     6.929
    56   1 H        0.802     0.340     0.613     1.230
    57   1 H        0.805     0.300     0.721     1.333
    58   8 O        1.608    -0.649    26.380     6.932
    59   1 H        0.804     0.327     0.645     1.261
    60   1 H        0.804     0.323     0.656     1.273
    61   8 O        1.607    -0.651    26.447     6.941
    62   1 H        0.806     0.289     0.755     1.364
    63   1 H        0.802     0.345     0.602     1.219
    64   8 O        1.606    -0.666    26.813     6.989
    65   1 H        0.802     0.334     0.628     1.245
    66   1 H        0.804     0.333     0.629     1.246
    67   8 O        1.607    -0.662    26.717     6.976
    68   1 H        0.803     0.333     0.629     1.246
    69   1 H        0.804     0.334     0.627     1.244
    70   8 O        1.607    -0.651    26.432     6.939
    71   1 H        0.803     0.331     0.636     1.253
    72   1 H        0.804     0.318     0.668     1.284
    73   8 O        1.609    -0.632    25.968     6.878
    74   1 H        0.804     0.313     0.684     1.299
    75   1 H        0.804     0.317     0.672     1.288
    76   8 O        1.606    -0.666    26.814     6.989
    77   1 H        0.803     0.331     0.635     1.252
    78   1 H        0.804     0.321     0.661     1.277
    79   8 O        1.607    -0.629    25.886     6.867
    80   1 H        0.802     0.340     0.612     1.229
    81   1 H        0.806     0.284     0.770     1.379
    82   8 O        1.608    -0.649    26.384     6.932
    83   1 H        0.803     0.342     0.608     1.225
    84   1 H        0.805     0.303     0.711     1.325
    85   8 O        1.608    -0.627    25.838     6.860
    86   1 H        0.802     0.337     0.619     1.236
    87   1 H        0.806     0.277     0.794     1.400
    88   8 O        1.606    -0.673    27.003     7.013
    89   1 H        0.803     0.343     0.606     1.223
    90   1 H        0.803     0.324     0.653     1.269
    91   8 O        1.610    -0.622    25.722     6.845
    92   1 H        0.805     0.316     0.674     1.290
    93   1 H        0.805     0.313     0.684     1.299
    94   8 O        1.608    -0.622    25.712     6.844
    95   1 H        0.806     0.285     0.768     1.376
    96   1 H        0.803     0.346     0.599     1.216
    97   8 O        1.606    -0.663    26.751     6.980
    98   1 H        0.803     0.324     0.653     1.269
    99   1 H        0.802     0.341     0.611     1.228
   100   8 O        1.608    -0.644    26.273     6.918
   101   1 H        0.804     0.317     0.671     1.287
   102   1 H        0.804     0.323     0.656     1.273
   103   8 O        1.605    -0.680    27.184     7.037
   104   1 H        0.803     0.324     0.655     1.271
   105   1 H        0.802     0.336     0.622     1.239
   106   8 O        1.606    -0.682    27.246     7.045
   107   1 H        0.803     0.344     0.602     1.219
   108   1 H        0.803     0.330     0.637     1.254
   109   8 O        1.607    -0.642    26.225     6.912
   110   1 H        0.802     0.338     0.618     1.235
   111   1 H        0.806     0.296     0.733     1.345
   112   8 O        1.607    -0.637    26.084     6.893
   113   1 H        0.806     0.279     0.788     1.394
   114   1 H        0.801     0.344     0.603     1.220
   115   8 O        1.607    -0.647    26.342     6.927
   116   1 H        0.802     0.339     0.615     1.232
   117   1 H        0.805     0.305     0.706     1.319
   118   8 O        1.610    -0.615    25.556     6.823
   119   1 H        0.804     0.324     0.653     1.269
   120   1 H        0.804     0.327     0.645     1.261
   121   8 O        1.606    -0.663    26.741     6.979
   122   1 H        0.805     0.313     0.684     1.299
   123   1 H        0.802     0.337     0.621     1.238
   124   8 O        1.609    -0.654    26.519     6.950
   125   1 H        0.804     0.334     0.628     1.244
   126   1 H        0.804     0.328     0.644     1.260
   127   8 O        1.607    -0.665    26.801     6.987
   128   1 H        0.803     0.330     0.638     1.254
   129   1 H        0.804     0.312     0.687     1.302
   130   8 O        1.608    -0.648    26.360     6.929
   131   1 H        0.804     0.322     0.657     1.274
   132   1 H        0.804     0.328     0.642     1.259
   133   8 O        1.604    -0.679    27.151     7.032
   134   1 H        0.801     0.352     0.583     1.200
   135   1 H        0.804     0.329     0.641     1.258
   136   8 O        1.608    -0.635    26.049     6.888
   137   1 H        0.804     0.324     0.654     1.270
   138   1 H        0.804     0.319     0.667     1.283
   139   8 O        1.607    -0.625    25.783     6.853
   140   1 H        0.802     0.348     0.593     1.210
   141   1 H        0.806     0.279     0.788     1.394
   142   8 O        1.609    -0.674    27.020     7.016
   143   1 H        0.804     0.337     0.619     1.236
   144   1 H        0.804     0.332     0.633     1.250
   145   8 O        1.609    -0.641    26.194     6.908
   146   1 H        0.804     0.321     0.660     1.276
   147   1 H        0.804     0.320     0.665     1.281
   148   8 O        1.610    -0.639    26.137     6.900
   149   1 H        0.803     0.327     0.644     1.261
   150   1 H        0.803     0.326     0.649     1.265

Wiberg/Mayer (AO) data.
largest (>0.10) Wiberg bond orders for each atom

     #   Z sym  total        # sym  WBO       # sym  WBO       # sym  WBO
 ---------------------------------------------------------------------------
     1   8 O    1.888 --     2 H    0.862     3 H    0.829
     2   1 H    0.894 --     1 O    0.862
     3   1 H    0.879 --     1 O    0.829
     4   8 O    1.870 --     5 H    0.858     6 H    0.848
     5   1 H    0.901 --     4 O    0.858
     6   1 H    0.895 --     4 O    0.848
     7   8 O    1.869 --     9 H    0.848     8 H    0.795
     8   1 H    0.883 --     7 O    0.795
     9   1 H    0.893 --     7 O    0.848
    10   8 O    1.877 --    12 H    0.831    11 H    0.801
    11   1 H    0.879 --    10 O    0.801
    12   1 H    0.881 --    10 O    0.831
    13   8 O    1.866 --    15 H    0.852    14 H    0.797
    14   1 H    0.886 --    13 O    0.797
    15   1 H    0.894 --    13 O    0.852
    16   8 O    1.876 --    18 H    0.912    17 H    0.762
    17   1 H    0.879 --    16 O    0.762   148 O    0.115
    18   1 H    0.919 --    16 O    0.912
    19   8 O    1.892 --    20 H    0.842    21 H    0.820
    20   1 H    0.886 --    19 O    0.842
    21   1 H    0.887 --    19 O    0.820
    22   8 O    1.880 --    23 H    0.849    24 H    0.822
    23   1 H    0.885 --    22 O    0.849
    24   1 H    0.886 --    22 O    0.822
    25   8 O    1.894 --    26 H    0.852    27 H    0.817
    26   1 H    0.892 --    25 O    0.852
    27   1 H    0.881 --    25 O    0.817
    28   8 O    1.868 --    29 H    0.877    30 H    0.856
    29   1 H    0.899 --    28 O    0.877
    30   1 H    0.899 --    28 O    0.856
    31   8 O    1.855 --    32 H    0.862    33 H    0.857
    32   1 H    0.895 --    31 O    0.862
    33   1 H    0.892 --    31 O    0.857
    34   8 O    1.869 --    36 H    0.840    35 H    0.816
    35   1 H    0.888 --    34 O    0.816
    36   1 H    0.897 --    34 O    0.840
    37   8 O    1.852 --    39 H    0.834    38 H    0.788
    38   1 H    0.884 --    37 O    0.788
    39   1 H    0.893 --    37 O    0.834
    40   8 O    1.852 --    41 H    0.918    42 H    0.823
    41   1 H    0.923 --    40 O    0.918
    42   1 H    0.887 --    40 O    0.823
    43   8 O    1.864 --    44 H    0.830    45 H    0.821
    44   1 H    0.895 --    43 O    0.830
    45   1 H    0.890 --    43 O    0.821
    46   8 O    1.876 --    48 H    0.819    47 H    0.801
    47   1 H    0.884 --    46 O    0.801
    48   1 H    0.890 --    46 O    0.819
    49   8 O    1.876 --    51 H    0.823    50 H    0.823
    50   1 H    0.880 --    49 O    0.823
    51   1 H    0.881 --    49 O    0.823
    52   8 O    1.878 --    54 H    0.886    53 H    0.821
    53   1 H    0.890 --    52 O    0.821
    54   1 H    0.903 --    52 O    0.886
    55   8 O    1.844 --    57 H    0.897    56 H    0.807
    56   1 H    0.884 --    55 O    0.807
    57   1 H    0.910 --    55 O    0.897
    58   8 O    1.860 --    60 H    0.855    59 H    0.837
    59   1 H    0.893 --    58 O    0.837
    60   1 H    0.896 --    58 O    0.855
    61   8 O    1.837 --    62 H    0.911    63 H    0.794
    62   1 H    0.916 --    61 O    0.911
    63   1 H    0.881 --    61 O    0.794
    64   8 O    1.878 --    66 H    0.838    65 H    0.811
    65   1 H    0.889 --    64 O    0.811
    66   1 H    0.889 --    64 O    0.838
    67   8 O    1.875 --    69 H    0.839    68 H    0.825
    68   1 H    0.889 --    67 O    0.825
    69   1 H    0.888 --    67 O    0.839
    70   8 O    1.868 --    72 H    0.849    71 H    0.834
    71   1 H    0.891 --    70 O    0.834
    72   1 H    0.899 --    70 O    0.849
    73   8 O    1.858 --    75 H    0.867    74 H    0.866
    74   1 H    0.902 --    73 O    0.866
    75   1 H    0.900 --    73 O    0.867
    76   8 O    1.863 --    78 H    0.848    77 H    0.824
    77   1 H    0.890 --    76 O    0.824
    78   1 H    0.897 --    76 O    0.848
    79   8 O    1.861 --    81 H    0.915    80 H    0.809
    80   1 H    0.884 --    79 O    0.809
    81   1 H    0.919 --    79 O    0.915
    82   8 O    1.844 --    84 H    0.889    83 H    0.819
    83   1 H    0.883 --    82 O    0.819
    84   1 H    0.908 --    82 O    0.889
    85   8 O    1.842 --    87 H    0.918    86 H    0.819
    86   1 H    0.886 --    85 O    0.819
    87   1 H    0.923 --    85 O    0.918
    88   8 O    1.862 --    90 H    0.836    89 H    0.823
    89   1 H    0.883 --    88 O    0.823
    90   1 H    0.895 --    88 O    0.836
    91   8 O    1.844 --    93 H    0.881    92 H    0.879
    92   1 H    0.900 --    91 O    0.879
    93   1 H    0.902 --    91 O    0.881
    94   8 O    1.863 --    95 H    0.912    96 H    0.820
    95   1 H    0.919 --    94 O    0.912
    96   1 H    0.881 --    94 O    0.820
    97   8 O    1.885 --    98 H    0.841    99 H    0.813
    98   1 H    0.895 --    97 O    0.841
    99   1 H    0.884 --    97 O    0.813
   100   8 O    1.860 --   101 H    0.860   102 H    0.847
   101   1 H    0.899 --   100 O    0.860
   102   1 H    0.896 --   100 O    0.847
   103   8 O    1.855 --   104 H    0.829   105 H    0.808
   104   1 H    0.895 --   103 O    0.829
   105   1 H    0.887 --   103 O    0.808
   106   8 O    1.854 --   107 H    0.822   108 H    0.813
   107   1 H    0.881 --   106 O    0.822
   108   1 H    0.891 --   106 O    0.813
   109   8 O    1.857 --   111 H    0.896   110 H    0.795
   110   1 H    0.886 --   109 O    0.795
   111   1 H    0.912 --   109 O    0.896
   112   8 O    1.846 --   113 H    0.914   114 H    0.797
   113   1 H    0.922 --   112 O    0.914
   114   1 H    0.882 --   112 O    0.797
   115   8 O    1.865 --   117 H    0.892   116 H    0.793
   116   1 H    0.885 --   115 O    0.793
   117   1 H    0.907 --   115 O    0.892
   118   8 O    1.897 --   119 H    0.872   120 H    0.869
   119   1 H    0.895 --   118 O    0.872
   120   1 H    0.893 --   118 O    0.869
   121   8 O    1.861 --   122 H    0.864   123 H    0.803
   122   1 H    0.902 --   121 O    0.864
   123   1 H    0.887 --   121 O    0.803
   124   8 O    1.869 --   125 H    0.850   126 H    0.838
   125   1 H    0.889 --   124 O    0.850
   126   1 H    0.893 --   124 O    0.838
   127   8 O    1.847 --   129 H    0.864   128 H    0.818
   128   1 H    0.891 --   127 O    0.818
   129   1 H    0.903 --   127 O    0.864
   130   8 O    1.847 --   131 H    0.856   132 H    0.852
   131   1 H    0.896 --   130 O    0.856
   132   1 H    0.892 --   130 O    0.852
   133   8 O    1.885 --   135 H    0.838   134 H    0.782
   134   1 H    0.876 --   133 O    0.782
   135   1 H    0.892 --   133 O    0.838
   136   8 O    1.878 --   138 H    0.855   137 H    0.855
   137   1 H    0.895 --   136 O    0.855
   138   1 H    0.898 --   136 O    0.855
   139   8 O    1.863 --   141 H    0.917   140 H    0.806
   140   1 H    0.879 --   139 O    0.806
   141   1 H    0.922 --   139 O    0.917
   142   8 O    1.830 --   143 H    0.836   144 H    0.831
   143   1 H    0.886 --   142 O    0.836
   144   1 H    0.890 --   142 O    0.831
   145   8 O    1.852 --   147 H    0.855   146 H    0.855
   146   1 H    0.897 --   145 O    0.855
   147   1 H    0.898 --   145 O    0.855
   148   8 O    1.901 --   149 H    0.844   150 H    0.843    17 H    0.115
   149   1 H    0.893 --   148 O    0.844
   150   1 H    0.894 --   148 O    0.843
 ---------------------------------------------------------------------------

molecular dipole:
                 x           y           z       tot (Debye)
 q only:       -1.402       2.552       1.245
   full:       -1.763       3.586       1.826      11.167

           -------------------------------------------------
          | TOTAL ENERGY             -254.459412930153 Eh   |
          | GRADIENT NORM               0.000811721712 Eh/α |
          | HOMO-LUMO GAP               9.041931762301 eV   |
           -------------------------------------------------

 * finished run on 2022/09/20 at 15:11:44.579
normal termination of xtb
